# vtk DataFile Version 5.1
vtk output
ASCII
DATASET POLYDATA
POINTS 10000 double
5.09937 0.0801073 0 5.09434 0.240243 0 5.08428 0.400141 0 
5.0692 0.559645 0 5.04912 0.718596 0 5.02406 0.876838 0 
4.99404 1.03422 0 4.95909 1.19057 0 4.91924 1.34575 0 
4.87454 1.49961 0 4.82504 1.65198 0 4.77076 1.80272 0 
4.71179 1.95169 0 4.64816 2.09872 0 4.57994 2.24369 0 
4.5072 2.38644 0 4.43002 2.52684 0 4.34846 2.66474 0 
4.26262 2.80002 0 4.17256 2.93253 0 4.07839 3.06214 0 
3.9802 3.18874 0 3.87807 3.31219 0 3.77212 3.43236 0 
3.66244 3.54916 0 3.54916 3.66244 0 3.43236 3.77212 0 
3.31219 3.87807 0 3.18874 3.9802 0 3.06214 4.07839 0 
2.93253 4.17256 0 2.80002 4.26262 0 2.66474 4.34846 0 
2.52684 4.43002 0 2.38644 4.5072 0 2.24369 4.57994 0 
2.09872 4.64816 0 1.95169 4.71179 0 1.80272 4.77076 0 
1.65198 4.82504 0 1.49961 4.87454 0 1.34575 4.91924 0 
1.19057 4.95909 0 1.03422 4.99404 0 0.876838 5.02406 0 
0.718596 5.04912 0 0.559645 5.0692 0 0.400141 5.08428 0 
0.240243 5.09434 0 0.0801073 5.09937 0 -0.0801073 5.09937 0 
-0.240243 5.09434 0 -0.400141 5.08428 0 -0.559645 5.0692 0 
-0.718596 5.04912 0 -0.876838 5.02406 0 -1.03422 4.99404 0 
-1.19057 4.95909 0 -1.34575 4.91924 0 -1.49961 4.87454 0 
-1.65198 4.82504 0 -1.80272 4.77076 0 -1.95169 4.71179 0 
-2.09872 4.64816 0 -2.24369 4.57994 0 -2.38644 4.5072 0 
-2.52684 4.43002 0 -2.66474 4.34846 0 -2.80002 4.26262 0 
-2.93253 4.17256 0 -3.06214 4.07839 0 -3.18874 3.9802 0 
-3.31219 3.87807 0 -3.43236 3.77212 0 -3.54916 3.66244 0 
-3.66244 3.54916 0 -3.77212 3.43236 0 -3.87807 3.31219 0 
-3.9802 3.18874 0 -4.07839 3.06214 0 -4.17256 2.93253 0 
-4.26262 2.80002 0 -4.34846 2.66474 0 -4.43002 2.52684 0 
-4.5072 2.38644 0 -4.57994 2.24369 0 -4.64816 2.09872 0 
-4.71179 1.95169 0 -4.77076 1.80272 0 -4.82504 1.65198 0 
-4.87454 1.49961 0 -4.91924 1.34575 0 -4.95909 1.19057 0 
-4.99404 1.03422 0 -5.02406 0.876838 0 -5.04912 0.718596 0 
-5.0692 0.559645 0 -5.08428 0.400141 0 -5.09434 0.240243 0 
-5.09937 0.0801073 0 -5.09937 -0.0801073 0 -5.09434 -0.240243 0 
-5.08428 -0.400141 0 -5.0692 -0.559645 0 -5.04912 -0.718596 0 
-5.02406 -0.876838 0 -4.99404 -1.03422 0 -4.95909 -1.19057 0 
-4.91924 -1.34575 0 -4.87454 -1.49961 0 -4.82504 -1.65198 0 
-4.77076 -1.80272 0 -4.71179 -1.95169 0 -4.64816 -2.09872 0 
-4.57994 -2.24369 0 -4.5072 -2.38644 0 -4.43002 -2.52684 0 
-4.34846 -2.66474 0 -4.26262 -2.80002 0 -4.17256 -2.93253 0 
-4.07839 -3.06214 0 -3.9802 -3.18874 0 -3.87807 -3.31219 0 
-3.77212 -3.43236 0 -3.66244 -3.54916 0 -3.54916 -3.66244 0 
-3.43236 -3.77212 0 -3.31219 -3.87807 0 -3.18874 -3.9802 0 
-3.06214 -4.07839 0 -2.93253 -4.17256 0 -2.80002 -4.26262 0 
-2.66474 -4.34846 0 -2.52684 -4.43002 0 -2.38644 -4.5072 0 
-2.24369 -4.57994 0 -2.09872 -4.64816 0 -1.95169 -4.71179 0 
-1.80272 -4.77076 0 -1.65198 -4.82504 0 -1.49961 -4.87454 0 
-1.34575 -4.91924 0 -1.19057 -4.95909 0 -1.03422 -4.99404 0 
-0.876838 -5.02406 0 -0.718596 -5.04912 0 -0.559645 -5.0692 0 
-0.400141 -5.08428 0 -0.240243 -5.09434 0 -0.0801073 -5.09937 0 
0.0801073 -5.09937 0 0.240243 -5.09434 0 0.400141 -5.08428 0 
0.559645 -5.0692 0 0.718596 -5.04912 0 0.876838 -5.02406 0 
1.03422 -4.99404 0 1.19057 -4.95909 0 1.34575 -4.91924 0 
1.49961 -4.87454 0 1.65198 -4.82504 0 1.80272 -4.77076 0 
1.95169 -4.71179 0 2.09872 -4.64816 0 2.24369 -4.57994 0 
2.38644 -4.5072 0 2.52684 -4.43002 0 2.66474 -4.34846 0 
2.80002 -4.26262 0 2.93253 -4.17256 0 3.06214 -4.07839 0 
3.18874 -3.9802 0 3.31219 -3.87807 0 3.43236 -3.77212 0 
3.54916 -3.66244 0 3.66244 -3.54916 0 3.77212 -3.43236 0 
3.87807 -3.31219 0 3.9802 -3.18874 0 4.07839 -3.06214 0 
4.17256 -2.93253 0 4.26262 -2.80002 0 4.34846 -2.66474 0 
4.43002 -2.52684 0 4.5072 -2.38644 0 4.57994 -2.24369 0 
4.64816 -2.09872 0 4.71179 -1.95169 0 4.77076 -1.80272 0 
4.82504 -1.65198 0 4.87454 -1.49961 0 4.91924 -1.34575 0 
4.95909 -1.19057 0 4.99404 -1.03422 0 5.02406 -0.876838 0 
5.04912 -0.718596 0 5.0692 -0.559645 0 5.08428 -0.400141 0 
5.09434 -0.240243 0 5.09937 -0.0801073 0 5.19936 0.0816781 0 
5.19423 0.244954 0 5.18397 0.407987 0 5.1686 0.570618 0 
5.14812 0.732686 0 5.12257 0.894031 0 5.09196 1.05449 0 
5.05632 1.21392 0 5.0157 1.37214 0 4.97012 1.52901 0 
4.91964 1.68437 0 4.86431 1.83807 0 4.80417 1.98995 0 
4.7393 2.13987 0 4.66974 2.28768 0 4.59558 2.43324 0 
4.51688 2.57639 0 4.43373 2.71699 0 4.3462 2.85492 0 
4.25438 2.99003 0 4.15836 3.12219 0 4.05824 3.25126 0 
3.95411 3.37713 0 3.84608 3.49967 0 3.73426 3.61875 0 
3.61875 3.73426 0 3.49967 3.84608 0 3.37713 3.95411 0 
3.25126 4.05824 0 3.12219 4.15836 0 2.99003 4.25438 0 
2.85492 4.3462 0 2.71699 4.43373 0 2.57639 4.51688 0 
2.43324 4.59558 0 2.28768 4.66974 0 2.13987 4.7393 0 
1.98995 4.80417 0 1.83807 4.86431 0 1.68437 4.91964 0 
1.52901 4.97012 0 1.37214 5.0157 0 1.21392 5.05632 0 
1.05449 5.09196 0 0.894031 5.12257 0 0.732686 5.14812 0 
0.570618 5.1686 0 0.407987 5.18397 0 0.244954 5.19423 0 
0.0816781 5.19936 0 -0.0816781 5.19936 0 -0.244954 5.19423 0 
-0.407987 5.18397 0 -0.570618 5.1686 0 -0.732686 5.14812 0 
-0.894031 5.12257 0 -1.05449 5.09196 0 -1.21392 5.05632 0 
-1.37214 5.0157 0 -1.52901 4.97012 0 -1.68437 4.91964 0 
-1.83807 4.86431 0 -1.98995 4.80417 0 -2.13987 4.7393 0 
-2.28768 4.66974 0 -2.43324 4.59558 0 -2.57639 4.51688 0 
-2.71699 4.43373 0 -2.85492 4.3462 0 -2.99003 4.25438 0 
-3.12219 4.15836 0 -3.25126 4.05824 0 -3.37713 3.95411 0 
-3.49967 3.84608 0 -3.61875 3.73426 0 -3.73426 3.61875 0 
-3.84608 3.49967 0 -3.95411 3.37713 0 -4.05824 3.25126 0 
-4.15836 3.12219 0 -4.25438 2.99003 0 -4.3462 2.85492 0 
-4.43373 2.71699 0 -4.51688 2.57639 0 -4.59558 2.43324 0 
-4.66974 2.28768 0 -4.7393 2.13987 0 -4.80417 1.98995 0 
-4.86431 1.83807 0 -4.91964 1.68437 0 -4.97012 1.52901 0 
-5.0157 1.37214 0 -5.05632 1.21392 0 -5.09196 1.05449 0 
-5.12257 0.894031 0 -5.14812 0.732686 0 -5.1686 0.570618 0 
-5.18397 0.407987 0 -5.19423 0.244954 0 -5.19936 0.0816781 0 
-5.19936 -0.0816781 0 -5.19423 -0.244954 0 -5.18397 -0.407987 0 
-5.1686 -0.570618 0 -5.14812 -0.732686 0 -5.12257 -0.894031 0 
-5.09196 -1.05449 0 -5.05632 -1.21392 0 -5.0157 -1.37214 0 
-4.97012 -1.52901 0 -4.91964 -1.68437 0 -4.86431 -1.83807 0 
-4.80417 -1.98995 0 -4.7393 -2.13987 0 -4.66974 -2.28768 0 
-4.59558 -2.43324 0 -4.51688 -2.57639 0 -4.43373 -2.71699 0 
-4.3462 -2.85492 0 -4.25438 -2.99003 0 -4.15836 -3.12219 0 
-4.05824 -3.25126 0 -3.95411 -3.37713 0 -3.84608 -3.49967 0 
-3.73426 -3.61875 0 -3.61875 -3.73426 0 -3.49967 -3.84608 0 
-3.37713 -3.95411 0 -3.25126 -4.05824 0 -3.12219 -4.15836 0 
-2.99003 -4.25438 0 -2.85492 -4.3462 0 -2.71699 -4.43373 0 
-2.57639 -4.51688 0 -2.43324 -4.59558 0 -2.28768 -4.66974 0 
-2.13987 -4.7393 0 -1.98995 -4.80417 0 -1.83807 -4.86431 0 
-1.68437 -4.91964 0 -1.52901 -4.97012 0 -1.37214 -5.0157 0 
-1.21392 -5.05632 0 -1.05449 -5.09196 0 -0.894031 -5.12257 0 
-0.732686 -5.14812 0 -0.570618 -5.1686 0 -0.407987 -5.18397 0 
-0.244954 -5.19423 0 -0.0816781 -5.19936 0 0.0816781 -5.19936 0 
0.244954 -5.19423 0 0.407987 -5.18397 0 0.570618 -5.1686 0 
0.732686 -5.14812 0 0.894031 -5.12257 0 1.05449 -5.09196 0 
1.21392 -5.05632 0 1.37214 -5.0157 0 1.52901 -4.97012 0 
1.68437 -4.91964 0 1.83807 -4.86431 0 1.98995 -4.80417 0 
2.13987 -4.7393 0 2.28768 -4.66974 0 2.43324 -4.59558 0 
2.57639 -4.51688 0 2.71699 -4.43373 0 2.85492 -4.3462 0 
2.99003 -4.25438 0 3.12219 -4.15836 0 3.25126 -4.05824 0 
3.37713 -3.95411 0 3.49967 -3.84608 0 3.61875 -3.73426 0 
3.73426 -3.61875 0 3.84608 -3.49967 0 3.95411 -3.37713 0 
4.05824 -3.25126 0 4.15836 -3.12219 0 4.25438 -2.99003 0 
4.3462 -2.85492 0 4.43373 -2.71699 0 4.51688 -2.57639 0 
4.59558 -2.43324 0 4.66974 -2.28768 0 4.7393 -2.13987 0 
4.80417 -1.98995 0 4.86431 -1.83807 0 4.91964 -1.68437 0 
4.97012 -1.52901 0 5.0157 -1.37214 0 5.05632 -1.21392 0 
5.09196 -1.05449 0 5.12257 -0.894031 0 5.14812 -0.732686 0 
5.1686 -0.570618 0 5.18397 -0.407987 0 5.19423 -0.244954 0 
5.19936 -0.0816781 0 5.29935 0.0832488 0 5.29412 0.249664 0 
5.28366 0.415833 0 5.26799 0.581592 0 5.24713 0.746777 0 
5.22108 0.911224 0 5.18988 1.07477 0 5.15356 1.23726 0 
5.11215 1.39853 0 5.0657 1.55841 0 5.01425 1.71676 0 
4.95785 1.87342 0 4.89656 2.02822 0 4.83044 2.18103 0 
4.75955 2.33168 0 4.68396 2.48003 0 4.60375 2.62593 0 
4.51899 2.76924 0 4.42978 2.90982 0 4.33619 3.04753 0 
4.23833 3.18223 0 4.13628 3.31379 0 4.03015 3.44207 0 
3.92004 3.56697 0 3.80607 3.68834 0 3.68834 3.80607 0 
3.56697 3.92004 0 3.44207 4.03015 0 3.31379 4.13628 0 
3.18223 4.23833 0 3.04753 4.33619 0 2.90982 4.42978 0 
2.76924 4.51899 0 2.62593 4.60375 0 2.48003 4.68396 0 
2.33168 4.75955 0 2.18103 4.83044 0 2.02822 4.89656 0 
1.87342 4.95785 0 1.71676 5.01425 0 1.55841 5.0657 0 
1.39853 5.11215 0 1.23726 5.15356 0 1.07477 5.18988 0 
0.911224 5.22108 0 0.746777 5.24713 0 0.581592 5.26799 0 
0.415833 5.28366 0 0.249664 5.29412 0 0.0832488 5.29935 0 
-0.0832488 5.29935 0 -0.249664 5.29412 0 -0.415833 5.28366 0 
-0.581592 5.26799 0 -0.746777 5.24713 0 -0.911224 5.22108 0 
-1.07477 5.18988 0 -1.23726 5.15356 0 -1.39853 5.11215 0 
-1.55841 5.0657 0 -1.71676 5.01425 0 -1.87342 4.95785 0 
-2.02822 4.89656 0 -2.18103 4.83044 0 -2.33168 4.75955 0 
-2.48003 4.68396 0 -2.62593 4.60375 0 -2.76924 4.51899 0 
-2.90982 4.42978 0 -3.04753 4.33619 0 -3.18223 4.23833 0 
-3.31379 4.13628 0 -3.44207 4.03015 0 -3.56697 3.92004 0 
-3.68834 3.80607 0 -3.80607 3.68834 0 -3.92004 3.56697 0 
-4.03015 3.44207 0 -4.13628 3.31379 0 -4.23833 3.18223 0 
-4.33619 3.04753 0 -4.42978 2.90982 0 -4.51899 2.76924 0 
-4.60375 2.62593 0 -4.68396 2.48003 0 -4.75955 2.33168 0 
-4.83044 2.18103 0 -4.89656 2.02822 0 -4.95785 1.87342 0 
-5.01425 1.71676 0 -5.0657 1.55841 0 -5.11215 1.39853 0 
-5.15356 1.23726 0 -5.18988 1.07477 0 -5.22108 0.911224 0 
-5.24713 0.746777 0 -5.26799 0.581592 0 -5.28366 0.415833 0 
-5.29412 0.249664 0 -5.29935 0.0832488 0 -5.29935 -0.0832488 0 
-5.29412 -0.249664 0 -5.28366 -0.415833 0 -5.26799 -0.581592 0 
-5.24713 -0.746777 0 -5.22108 -0.911224 0 -5.18988 -1.07477 0 
-5.15356 -1.23726 0 -5.11215 -1.39853 0 -5.0657 -1.55841 0 
[...]
POINT_DATA 10000
FIELD FieldData 3
abs 1 10000 double
10.9516 10.7452 10.3553 9.82532 9.214 8.58841 8.01565 7.55351 7.24131 
7.09294 7.09513 7.21199 7.39364 7.58593 7.73933 7.81708 7.80258 7.70497 
7.56086 7.42867 7.37205 7.43424 7.61547 7.86976 8.1234 8.30159 8.34994 
8.24684 8.00814 7.68514 7.3548 7.09924 6.9757 6.99037 7.09567 7.21413 
7.26978 7.2099 7.01397 6.69409 6.29086 5.86628 5.49312 5.2389 5.14562 
5.215 5.41086 5.67618 5.95016 6.1772 6.31027 6.31348 6.16631 5.87002 
5.45592 4.9946 4.60066 4.4133 4.52779 4.92135 5.4718 6.03742 6.50547 
6.80228 6.89012 6.76228 6.43858 5.96118 5.39074 4.80254 4.28101 3.90716 
3.73375 3.75983 3.93448 4.19049 4.47306 4.74764 4.99584 5.20887 5.38237 
5.51349 5.59976 5.63924 5.6313 5.57733 5.48134 5.34997 5.19213 5.01829 
4.83945 4.66612 4.50721 4.36925 4.25588 4.16787 4.10362 4.06003 4.03355 
4.02116 4.02116 4.03355 4.06003 4.10362 4.16787 4.25588 4.36925 4.50721 
4.66612 4.83945 5.01829 5.19213 5.34997 5.48134 5.57733 5.6313 5.63924 
5.59976 5.51349 5.38237 5.20887 4.99584 4.74764 4.47306 4.19049 3.93448 
3.75983 3.73375 3.90716 4.28101 4.80254 5.39074 5.96118 6.43858 6.76228 
6.89012 6.80228 6.50547 6.03742 5.4718 4.92135 4.52779 4.4133 4.60066 
4.9946 5.45592 5.87002 6.16631 6.31348 6.31027 6.1772 5.95016 5.67618 
5.41086 5.215 5.14562 5.2389 5.49312 5.86628 6.29086 6.69409 7.01397 
7.2099 7.26978 7.21413 7.09567 6.99037 6.9757 7.09924 7.3548 7.68514 
8.00814 8.24684 8.34994 8.30159 8.1234 7.86976 7.61547 7.43424 7.37205 
7.42867 7.56086 7.70497 7.80258 7.81708 7.73933 7.58593 7.39364 7.21199 
7.09513 7.09294 7.24131 7.55351 8.01565 8.58841 9.214 9.82532 10.3553 
10.7452 10.9516 9.36735 9.22615 8.95881 8.59366 8.16911 7.72946 7.32009 
6.98244 6.74857 6.63577 6.64247 6.74757 6.91432 7.09776 7.2535 7.34607 
7.35607 7.28518 7.1581 7.01931 6.92223 6.91077 6.9998 7.16623 7.35753 
7.51145 7.5757 7.52143 7.34981 7.09293 6.80835 6.56544 6.42263 6.40257 
6.48089 6.59823 6.6859 6.68859 6.57685 6.35081 6.03873 5.69187 5.37551 
5.15403 5.07086 5.13182 5.30459 5.53433 5.76202 5.93574 6.01533 5.97482 
5.80536 5.51981 5.15821 4.79188 4.51842 4.43317 4.57682 4.9045 5.31473 
5.70028 5.97751 6.09413 6.0283 5.78555 5.39534 4.90764 4.38935 3.91902 
3.5747 3.40936 3.42414 3.57002 3.78056 4.00137 4.19896 4.3573 4.47141 
4.54195 4.57143 4.56234 4.51655 4.43574 4.32216 4.17945 4.01302 3.8302 
3.63976 3.45123 3.27392 3.11586 2.98279 2.87749 2.79963 2.74624 2.71258 
2.69332 2.68357 2.67967 2.67967 2.68357 2.69332 2.71258 2.74624 2.79963 
2.87749 2.98279 3.11586 3.27392 3.45123 3.63976 3.8302 4.01302 4.17945 
4.32216 4.43574 4.51655 4.56234 4.57143 4.54195 4.47141 4.3573 4.19896 
4.00137 3.78056 3.57002 3.42414 3.40936 3.5747 3.91902 4.38935 4.90764 
5.39534 5.78555 6.0283 6.09413 5.97751 5.70028 5.31473 4.9045 4.57682 
4.43317 4.51842 4.79188 5.15821 5.51981 5.80536 5.97482 6.01533 5.93574 
5.76202 5.53433 5.30459 5.13182 5.07086 5.15403 5.37551 5.69187 6.03873 
6.35081 6.57685 6.68859 6.6859 6.59823 6.48089 6.40257 6.42263 6.56544 
6.80835 7.09293 7.34981 7.52143 7.5757 7.51145 7.35753 7.16623 6.9998 
6.91077 6.92223 7.01931 7.1581 7.28518 7.35607 7.34607 7.2535 7.09776 
6.91432 6.74757 6.64247 6.63577 6.74857 6.98244 7.32009 7.72946 8.16911 
8.59366 8.95881 9.22615 9.36735 8.49437 8.3934 8.20179 7.9389 7.63099 
7.30839 7.00274 6.74417 6.55816 6.46167 6.45904 6.5392 6.67634 6.83459 
6.97541 7.06559 7.08438 7.02864 6.91532 6.77965 6.6674 6.62063 6.66061 
6.77693 6.93032 7.06741 7.13841 7.11106 6.97859 6.76234 6.50878 6.27932 
6.13145 6.09529 6.15877 6.27302 6.37401 6.40537 6.33296 6.15076 5.88116 
5.57103 5.28335 5.08213 5.01126 5.07638 5.24381 5.4571 5.65697 5.79378 
5.83261 5.75532 5.56252 5.27659 4.94487 4.63942 4.44514 4.42784 4.5952 
4.88891 5.2171 5.49154 5.64704 5.6467 5.48137 5.1674 4.74391 4.26989 
3.81979 3.47322 3.2916 3.28769 3.41892 3.61757 3.82433 4.00137 4.13048 
4.20698 4.2338 4.21705 4.16315 4.07752 3.96441 3.82755 3.67107 3.50031 
3.32221 3.1452 2.97854 2.8312 2.71042 2.62048 2.56184 2.53131 2.52299 
2.52971 2.54435 2.56078 2.57431 2.58185 2.58185 2.57431 2.56078 2.54435 
2.52971 2.52299 2.53131 2.56184 2.62048 2.71042 2.8312 2.97854 3.1452 
3.32221 3.50031 3.67107 3.82755 3.96441 4.07752 4.16315 4.21705 4.2338 
4.20698 4.13048 4.00137 3.82433 3.61757 3.41892 3.28769 3.2916 3.47322 
3.81979 4.26989 4.74391 5.1674 5.48137 5.6467 5.64704 5.49154 5.2171 
4.88891 4.5952 4.42784 4.44514 4.63942 4.94487 5.27659 5.56252 5.75532 
5.83261 5.79378 5.65697 5.4571 5.24381 5.07638 5.01126 5.08213 5.28335 
5.57103 5.88116 6.15076 6.33296 6.40537 6.37401 6.27302 6.15877 6.09529 
6.13145 6.27932 6.50878 6.76234 6.97859 7.11106 7.13841 7.06741 6.93032 
6.77693 6.66061 6.62063 6.6674 6.77965 6.91532 7.02864 7.08438 7.06559 
6.97541 6.83459 6.67634 6.5392 6.45904 6.46167 6.55816 6.74417 7.00274 
7.30839 7.63099 7.9389 8.20179 8.3934 8.49437 7.90754 7.83559 7.69859 
7.50949 7.28576 7.04774 6.81716 6.61575 6.46366 6.37668 6.3626 6.41744 
6.52417 6.65498 6.777 6.85967 6.88171 6.83659 6.73547 6.60653 6.48936 
6.42338 6.43299 6.5159 6.64241 6.76618 6.84009 6.83014 6.72444 6.5372 
6.30733 6.09049 5.94271 5.89816 5.95232 6.06324 6.17022 6.21645 6.16498 
6.00628 5.7597 5.47039 5.20104 5.01606 4.95891 5.0329 5.20089 5.40366 
5.58136 5.68656 5.68935 5.57885 5.36437 5.07707 4.77069 4.51706 4.38848 
4.42562 4.61161 4.87959 5.14516 5.33429 5.39641 5.30775 5.07093 4.71322 
4.2844 3.85345 3.50045 3.2961 3.26904 3.38868 3.58844 3.80309 3.98789 
4.11978 4.19205 4.20817 4.1768 4.10802 4.01106 3.89337 3.76087 3.61873 
3.47246 3.32856 3.19461 3.07864 2.98788 2.9272 2.89801 2.89788 2.92126 
2.96081 3.00885 3.05845 3.10398 3.14129 3.16756 3.1811 3.1811 3.16756 
3.14129 3.10398 3.05845 3.00885 2.96081 2.92126 2.89788 2.89801 2.9272 
2.98788 3.07864 3.19461 3.32856 3.47246 3.61873 3.76087 3.89337 4.01106 
4.10802 4.1768 4.20817 4.19205 4.11978 3.98789 3.80309 3.58844 3.38868 
3.26904 3.2961 3.50045 3.85345 4.2844 4.71322 5.07093 5.30775 5.39641 
5.33429 5.14516 4.87959 4.61161 4.42562 4.38848 4.51706 4.77069 5.07707 
5.36437 5.57885 5.68935 5.68656 5.58136 5.40366 5.20089 5.0329 4.95891 
5.01606 5.20104 5.47039 5.7597 6.00628 6.16498 6.21645 6.17022 6.06324 
5.95232 5.89816 5.94271 6.09049 6.30733 6.5372 6.72444 6.83014 6.84009 
6.76618 6.64241 6.5159 6.43299 6.42338 6.48936 6.60653 6.73547 6.83659 
6.88171 6.85967 6.777 6.65498 6.52417 6.41744 6.3626 6.37668 6.46366 
6.61575 6.81716 7.04774 7.28576 7.50949 7.69859 7.83559 7.90754 7.47709 
7.42738 7.33222 7.19955 7.04013 6.8667 6.69346 6.53577 6.40944 6.32891 
6.30399 6.33583 6.41435 6.5187 6.62138 6.69461 6.71721 6.68015 6.59007 
6.46951 6.35272 6.27631 6.26606 6.32521 6.43131 6.54392 6.61857 6.62047 
6.53428 6.36905 6.15814 5.95283 5.80755 5.75872 5.80671 5.91436 6.02341 
6.07695 6.03637 5.89018 5.6564 5.37996 5.12432 4.95444 4.91239 4.99767 
5.16849 5.36255 5.51973 5.59522 5.5643 5.42335 5.19017 4.90421 4.62469 
4.42142 4.35268 4.43589 4.63504 4.87866 5.08982 5.2069 5.19233 5.03471 
4.74844 4.37244 3.96794 3.61256 3.38376 3.32717 3.42982 3.63153 3.86263 
4.07021 4.22414 4.31336 4.34 4.31394 4.24827 4.15605 4.0484 3.93387 
3.81889 3.70878 3.60871 3.52411 3.46039 3.42203 3.41148 3.42829 3.46908 
3.52815 3.5986 3.67349 3.74664 3.81315 3.86944 3.91316 3.9429 3.95793 
3.95793 3.9429 3.91316 3.86944 3.81315 3.74664 3.67349 3.5986 3.52815 
3.46908 3.42829 3.41148 3.42203 3.46039 3.52411 3.60871 3.70878 3.81889 
3.93387 4.0484 4.15605 4.24827 4.31394 4.34 4.31336 4.22414 4.07021 
3.86263 3.63153 3.42982 3.32717 3.38376 3.61256 3.96794 4.37244 4.74844 
5.03471 5.19233 5.2069 5.08982 4.87866 4.63504 4.43589 4.35268 4.42142 
4.62469 4.90421 5.19017 5.42335 5.5643 5.59522 5.51973 5.36255 5.16849 
4.99767 4.91239 4.95444 5.12432 5.37996 5.6564 5.89018 6.03637 6.07695 
6.02341 5.91436 5.80671 5.75872 5.80755 5.95283 6.15814 6.36905 6.53428 
6.62047 6.61857 6.54392 6.43131 6.32521 6.26606 6.27631 6.35272 6.46951 
6.59007 6.68015 6.71721 6.69461 6.62138 6.5187 6.41435 6.33583 6.30399 
6.32891 6.40944 6.53577 6.69346 6.8667 7.04013 7.19955 7.33222 7.42738 
7.47709 7.14599 7.11379 7.05152 6.96317 6.85419 6.73141 6.60322 6.47999 
6.37404 6.29841 6.26404 6.27579 6.32907 6.40898 6.49295 6.5561 6.57772 
6.54703 6.46703 6.35553 6.24216 6.16069 6.13725 6.17893 6.26894 6.37186 
6.44584 6.45593 6.38437 6.23635 6.04102 5.84613 5.70458 5.65394 5.69778 
5.80225 5.91094 5.96701 5.93101 5.79057 5.56354 5.29569 5.05178 4.89716 
4.87155 4.9694 5.1436 5.32896 5.46562 5.51196 5.44891 5.28032 5.03248 
4.75272 4.50438 4.35282 4.34024 4.46234 4.66863 4.88648 5.04714 5.10077 
5.02223 4.81241 4.49795 4.13005 3.78047 3.52926 3.43703 3.51234 3.70819 
3.95441 4.1901 4.37635 4.49549 4.54609 4.5374 4.48429 4.40318 4.30892 
4.21313 4.1239 4.04647 3.98439 3.94055 3.91752 3.91732 3.9407 3.98659 
4.05183 4.13154 4.21981 4.31057 4.39833 4.47864 4.54829 4.60523 4.64834 
4.67716 4.69157 4.69157 4.67716 4.64834 4.60523 4.54829 4.47864 4.39833 
4.31057 4.21981 4.13154 4.05183 3.98659 3.9407 3.91732 3.91752 3.94055 
3.98439 4.04647 4.1239 4.21313 4.30892 4.40318 4.48429 4.5374 4.54609 
4.49549 4.37635 4.1901 3.95441 3.70819 3.51234 3.43703 3.52926 3.78047 
4.13005 4.49795 4.81241 5.02223 5.10077 5.04714 4.88648 4.66863 4.46234 
4.34024 4.35282 4.50438 4.75272 5.03248 5.28032 5.44891 5.51196 5.46562 
5.32896 5.1436 4.9694 4.87155 4.89716 5.05178 5.29569 5.56354 5.79057 
5.93101 5.96701 5.91094 5.80225 5.69778 5.65394 5.70458 5.84613 6.04102 
6.23635 6.38437 6.45593 6.44584 6.37186 6.26894 6.17893 6.13725 6.16069 
6.24216 6.35553 6.46703 6.54703 6.57772 6.5561 6.49295 6.40898 6.32907 
6.27579 6.26404 6.29841 6.37404 6.47999 6.60322 6.73141 6.85419 6.96317 
7.05152 7.11379 7.14599 6.88392 6.86564 6.82951 6.77633 6.70739 6.62486 
6.53259 6.43705 6.34766 6.2761 6.23385 6.22839 6.25948 6.31728 6.38368 
6.43671 6.45645 6.43089 6.36007 6.2578 6.14967 6.0666 6.03447 6.06305 
6.14007 6.23441 6.30676 6.32243 6.26195 6.12763 5.94529 5.7598 5.62262 
5.57175 5.61279 5.71416 5.82079 5.87611 5.84041 5.70129 5.47729 5.21572 
4.98301 4.8445 4.83654 4.94748 5.12466 5.30036 5.41571 5.43301 5.33934 
5.14638 4.88896 4.62168 4.41017 4.31224 4.35208 4.50575 4.71273 4.90229 
5.01471 5.01188 4.88102 4.63558 4.31486 3.98176 3.71426 3.58349 3.62016 
3.79702 4.04951 4.31094 4.53283 4.68893 4.77191 4.7882 4.75278 4.68434 
4.60125 4.51866 4.44711 4.39256 4.35761 4.34298 4.34868 4.37451 4.41988 
4.48336 4.5623 4.65278 4.74997 4.84871 4.94412 5.03211 5.10966 5.17489 
5.22689 5.26549 5.2909 5.3035 5.3035 5.2909 5.26549 5.22689 5.17489 
5.10966 5.03211 4.94412 4.84871 4.74997 4.65278 4.5623 4.48336 4.41988 
4.37451 4.34868 4.34298 4.35761 4.39256 4.44711 4.51866 4.60125 4.68434 
4.75278 4.7882 4.77191 4.68893 4.53283 4.31094 4.04951 3.79702 3.62016 
3.58349 3.71426 3.98176 4.31486 4.63558 4.88102 5.01188 5.01471 4.90229 
4.71273 4.50575 4.35208 4.31224 4.41017 4.62168 4.88896 5.14638 5.33934 
5.43301 5.41571 5.30036 5.12466 4.94748 4.83654 4.8445 4.98301 5.21572 
5.47729 5.70129 5.84041 5.87611 5.82079 5.71416 5.61279 5.57175 5.62262 
5.7598 5.94529 6.12763 6.26195 6.32243 6.30676 6.23441 6.14007 6.06305 
6.03447 6.0666 6.14967 6.2578 6.36007 6.43089 6.45645 6.43671 6.38368 
6.31728 6.25948 6.22839 6.23385 6.2761 6.34766 6.43705 6.53259 6.62486 
6.70739 6.77633 6.82951 6.86564 6.88392 6.67264 6.66545 6.65011 6.62492 
6.58787 6.53751 6.47414 6.4011 6.32543 6.25747 6.20882 6.18883 6.20065 
6.23868 6.28887 6.33205 6.34936 6.32796 6.2655 6.17236 6.07049 5.98813 
5.95048 5.96915 6.03548 6.12212 6.19216 6.21146 6.1594 6.03606 5.86464 
5.68766 5.55515 5.50511 5.54428 5.64256 5.74588 5.79808 5.75966 5.61884 
5.39558 5.13927 4.91812 4.79693 4.80759 4.93157 5.11062 5.27516 5.36813 
5.35646 5.23397 5.02058 4.75962 4.51206 4.3433 4.30018 4.38765 4.56503 
4.76607 4.92454 4.99063 4.93812 4.7668 4.50291 4.19811 3.92415 3.75694 
3.7464 3.88931 4.13409 4.41267 4.66777 4.86318 4.98356 5.03024 5.01621 
4.96097 4.88573 4.80937 4.7458 4.70297 4.68367 4.68727 4.71163 4.7544 
4.81352 4.88697 4.97242 5.06679 5.16628 5.26666 5.3637 5.45368 5.53375 
5.60208 5.65789 5.7012 5.73261 5.75292 5.76287 5.76287 5.75292 5.73261 
5.7012 5.65789 5.60208 5.53375 5.45368 5.3637 5.26666 5.16628 5.06679 
4.97242 4.88697 4.81352 4.7544 4.71163 4.68727 4.68367 4.70297 4.7458 
4.80937 4.88573 4.96097 5.01621 5.03024 4.98356 4.86318 4.66777 4.41267 
4.13409 3.88931 3.7464 3.75694 3.92415 4.19811 4.50291 4.7668 4.93812 
4.99063 4.92454 4.76607 4.56503 4.38765 4.30018 4.3433 4.51206 4.75962 
5.02058 5.23397 5.35646 5.36813 5.27516 5.11062 4.93157 4.80759 4.79693 
4.91812 5.13927 5.39558 5.61884 5.75966 5.79808 5.74588 5.64256 5.54428 
5.50511 5.55515 5.68766 5.86464 6.03606 6.1594 6.21146 6.19216 6.12212 
6.03548 5.96915 5.95048 5.98813 6.07049 6.17236 6.2655 6.32796 6.34936 
6.33205 6.28887 6.23868 6.20065 6.18883 6.20882 6.25747 6.32543 6.4011 
6.47414 6.53751 6.58787 6.62492 6.65011 6.66545 6.67264 6.50025 6.50182 
6.50293 6.49992 6.48823 6.4636 6.42357 6.36896 6.30479 6.24016 6.1865 
6.15437 6.14958 6.1701 6.20548 6.23927 6.25382 6.23582 6.18095 6.09664 
6.0016 5.92148 5.88057 5.89169 5.94913 6.02877 6.09602 6.11744 6.07173 
5.95725 5.79508 5.6258 5.49809 5.44958 5.48753 5.58269 5.68173 5.72901 
5.68567 5.54112 5.31729 5.06609 4.85745 4.75491 4.78489 4.92134 5.1007 
5.2523 5.32176 5.28139 5.1324 4.90328 4.6457 4.42554 4.30482 4.31609 
4.44498 4.63774 4.82637 4.95125 4.97325 4.87834 4.67904 4.41427 4.14627 
3.94999 3.88897 3.98454 4.205 4.48737 4.76821 5.00114 5.16112 5.24223 
5.25324 5.21258 5.14308 5.06711 5.00261 4.96085 4.94623 4.95792 4.99219 
5.04464 5.11141 5.1895 5.2764 5.36961 5.46623 5.56295 5.65629 5.74296 
5.82032 5.88661 5.94104 5.98377 6.01564 6.03789 6.05182 6.05849 6.05849 
6.05182 6.03789 6.01564 5.98377 5.94104 5.88661 5.82032 5.74296 5.65629 
5.56295 5.46623 5.36961 5.2764 5.1895 5.11141 5.04464 4.99219 4.95792 
4.94623 4.96085 5.00261 5.06711 5.14308 5.21258 5.25324 5.24223 5.16112 
5.00114 4.76821 4.48737 4.205 3.98454 3.88897 3.94999 4.14627 4.41427 
4.67904 4.87834 4.97325 4.95125 4.82637 4.63774 4.44498 4.31609 4.30482 
4.42554 4.6457 4.90328 5.1324 5.28139 5.32176 5.2523 5.1007 4.92134 
4.78489 4.75491 4.85745 5.06609 5.31729 5.54112 5.68567 5.72901 5.68173 
5.58269 5.48753 5.44958 5.49809 5.6258 5.79508 5.95725 6.07173 6.11744 
6.09602 6.02877 5.94913 5.89169 5.88057 5.92148 6.0016 6.09664 6.18095 
6.23582 6.25382 6.23927 6.20548 6.1701 6.14958 6.15437 6.1865 6.24016 
6.30479 6.36896 6.42357 6.4636 6.48823 6.49992 6.50293 6.50182 6.50025 
6.35843 6.36683 6.38082 6.39523 6.40359 6.39948 6.3783 6.33884 6.28444 
6.22296 6.16549 6.12335 6.10435 6.10946 6.13142 6.15637 6.16799 6.15275 
6.10476 6.02889 5.94092 5.86407 5.82152 5.82691 5.87684 5.95007 6.01416 
6.03656 5.99554 5.88819 5.73392 5.57162 5.44874 5.40224 5.4394 5.53137 
5.62534 5.66632 5.61646 5.46685 5.24189 4.99625 4.80145 4.71893 4.76858 
4.91646 5.09421 5.23097 5.27592 5.20754 5.03498 4.79564 4.54902 4.36383 
4.29505 4.35822 4.52098 4.7206 4.89076 4.9802 4.96108 4.83182 4.61765 
4.36912 4.15545 4.04699 4.0863 4.26597 4.53565 4.83046 5.09514 5.29409 
5.41228 5.4521 5.42876 5.36507 5.28598 5.21363 5.16366 5.14361 5.15384 
5.18994 5.24571 5.31524 5.39399 5.47877 5.56717 5.65695 5.74569 5.83072 
5.90935 5.97921 6.03862 6.0868 6.12389 6.15088 6.16932 6.18101 6.18766 
6.19063 6.19063 6.18766 6.18101 6.16932 6.15088 6.12389 6.0868 6.03862 
5.97921 5.90935 5.83072 5.74569 5.65695 5.56717 5.47877 5.39399 5.31524 
5.24571 5.18994 5.15384 5.14361 5.16366 5.21363 5.28598 5.36507 5.42876 
5.4521 5.41228 5.29409 5.09514 4.83046 4.53565 4.26597 4.0863 4.04699 
4.15545 4.36912 4.61765 4.83182 4.96108 4.9802 4.89076 4.7206 4.52098 
4.35822 4.29505 4.36383 4.54902 4.79564 5.03498 5.20754 5.27592 5.23097 
5.09421 4.91646 4.76858 4.71893 4.80145 4.99625 5.24189 5.46685 5.61646 
5.66632 5.62534 5.53137 5.4394 5.40224 5.44874 5.57162 5.73392 5.88819 
5.99554 6.03656 6.01416 5.95007 5.87684 5.82691 5.82152 5.86407 5.94092 
6.02889 6.10476 6.15275 6.16799 6.15637 6.13142 6.10946 6.10435 6.12335 
6.16549 6.22296 6.28444 6.33884 6.3783 6.39948 6.40359 6.39523 6.38082 
6.36683 6.35843 6.24109 6.25474 6.27863 6.30654 6.33056 6.34271 6.33671 
6.30976 6.26369 6.20527 6.14503 6.09472 6.06367 6.05529 6.06517 6.08188 
6.09049 6.07749 6.03572 5.96782 5.88695 5.81402 5.77104 5.77206 5.8156 
5.88291 5.9436 5.96606 5.92841 5.8268 5.67927 5.52334 5.40523 5.36107 
5.39772 5.48638 5.57462 5.60824 5.55073 5.39527 5.16916 4.93004 4.75063 
4.68939 4.75867 4.91654 5.09053 5.21057 5.23028 5.13504 4.94257 4.69927 
4.47153 4.32815 4.3132 4.42363 4.61167 4.80977 4.95615 5.00919 4.95283 
4.79807 4.58232 4.36559 4.21859 4.19906 4.32442 4.56375 4.85741 5.14427 
5.37846 5.53458 5.60669 5.60459 5.54904 5.46613 5.38169 5.31623 5.28184 
5.28165 5.31182 5.3649 5.43291 5.50928 5.58947 5.67063 5.75083 5.82837 
5.90144 5.96805 6.02628 6.07462 6.1123 6.13938 6.15685 6.1664 6.17019 
6.17049 6.16937 6.16839 6.16839 6.16937 6.17049 6.17019 6.1664 6.15685 
6.13938 6.1123 6.07462 6.02628 5.96805 5.90144 5.82837 5.75083 5.67063 
5.58947 5.50928 5.43291 5.3649 5.31182 5.28165 5.28184 5.31623 5.38169 
5.46613 5.54904 5.60459 5.60669 5.53458 5.37846 5.14427 4.85741 4.56375 
4.32442 4.19906 4.21859 4.36559 4.58232 4.79807 4.95283 5.00919 4.95615 
4.80977 4.61167 4.42363 4.3132 4.32815 4.47153 4.69927 4.94257 5.13504 
5.23028 5.21057 5.09053 4.91654 4.75867 4.68939 4.75063 4.93004 5.16916 
5.39527 5.55073 5.60824 5.57462 5.48638 5.39772 5.36107 5.40523 5.52334 
5.67927 5.8268 5.92841 5.96606 5.9436 5.88291 5.8156 5.77206 5.77104 
5.81402 5.88695 5.96782 6.03572 6.07749 6.09049 6.08188 6.06517 6.05529 
6.06367 6.09472 6.14503 6.20527 6.26369 6.30976 6.33671 6.34271 6.33056 
6.30654 6.27863 6.25474 6.24109 6.14364 6.1612 6.19253 6.23066 6.26674 
6.29162 6.2978 6.28115 6.24227 6.18681 6.12471 6.06783 6.02662 6.00651 
6.00557 6.01466 6.02025 6.00904 5.97289 5.91247 5.83859 5.76999 5.72742 
5.72513 5.76318 5.825 5.88211 5.9039 5.86854 5.77151 5.62978 5.47968 
5.36626 5.32463 5.36095 5.44615 5.52812 5.55356 5.4876 5.32595 5.09913 
4.86783 4.70552 4.66659 4.75507 4.92112 5.08907 5.19062 5.18471 5.06437 
4.85635 4.61596 4.415 4.3189 4.35732 4.50844 4.7126 4.90126 5.01946 
5.03615 4.94742 4.77665 4.57223 4.40005 4.32587 4.38866 4.58123 4.85652 
5.15261 5.41503 5.6076 5.71448 5.73809 5.6949 5.61027 5.51248 5.42683 
5.37086 5.3521 5.36884 5.41336 5.47584 5.54737 5.62145 5.69412 5.76324 
5.8276 5.88618 5.93782 5.98122 6.01518 6.039 6.05268 6.05708 6.05386 
6.04534 6.03414 6.02292 6.01399 6.00906 6.00906 6.01399 6.02292 6.03414 
6.04534 6.05386 6.05708 6.05268 6.039 6.01518 5.98122 5.93782 5.88618 
5.8276 5.76324 5.69412 5.62145 5.54737 5.47584 5.41336 5.36884 5.3521 
5.37086 5.42683 5.51248 5.61027 5.6949 5.73809 5.71448 5.6076 5.41503 
5.15261 4.85652 4.58123 4.38866 4.32587 4.40005 4.57223 4.77665 4.94742 
5.03615 5.01946 4.90126 4.7126 4.50844 4.35732 4.3189 4.415 4.61596 
4.85635 5.06437 5.18471 5.19062 5.08907 4.92112 4.75507 4.66659 4.70552 
4.86783 5.09913 5.32595 5.4876 5.55356 5.52812 5.44615 5.36095 5.32463 
5.36626 5.47968 5.62978 5.77151 5.86854 5.9039 5.88211 5.825 5.76318 
5.72513 5.72742 5.76999 5.83859 5.91247 5.97289 6.00904 6.02025 6.01466 
6.00557 6.00651 6.02662 6.06783 6.12471 6.18681 6.24227 6.28115 6.2978 
6.29162 6.26674 6.23066 6.19253 6.1612 6.14364 6.06249 6.08286 6.11956 
6.16522 6.21035 6.24505 6.2609 6.25275 6.22006 6.16751 6.10431 6.04225 
5.99256 5.96229 5.95171 5.95378 5.9564 5.94662 5.91551 5.86208 5.79498 
5.73092 5.68939 5.68461 5.71789 5.77458 5.82797 5.84851 5.81457 5.72117 
5.58445 5.43971 5.33087 5.29189 5.32795 5.40953 5.48476 5.50139 5.42652 
5.25871 5.03199 4.81008 4.66659 4.65076 4.75758 4.92972 5.08927 5.17075 
5.13928 4.99621 4.7777 4.54751 4.38069 4.33548 4.42436 4.6081 4.8191 
4.99115 5.0778 5.0593 4.94401 4.76709 4.58577 4.46716 4.46579 4.59876 
4.83818 5.12788 5.40826 5.633 5.7755 5.82897 5.80357 5.72171 5.61238 
5.50476 5.42219 5.37792 5.37413 5.40427 5.45733 5.52195 5.58915 5.65314 