# vtk DataFile Version 2.0
Cube example
ASCII
DATASET POLYDATA
POINTS 400 float
-10 -10 0
-10 -9 0
-10 -8 0
-10 -7 0
-10 -6 0
-10 -5 0
-10 -4 0
-10 -3 0
-10 -2 0
-10 -1 0
-10 1 0
-10 2 0
-10 3 0
-10 4 0
-10 5 0
-10 6 0
-10 7 0
-10 8 0
-10 9 0
-10 10 0
-9 -10 0
-9 -9 0
-9 -8 0
-9 -7 0
-9 -6 0
-9 -5 0
-9 -4 0
-9 -3 0
-9 -2 0
-9 -1 0
-9 1 0
-9 2 0
-9 3 0
-9 4 0
-9 5 0
-9 6 0
-9 7 0
-9 8 0
-9 9 0
-9 10 0
-8 -10 0
-8 -9 0
-8 -8 0
-8 -7 0
-8 -6 0
-8 -5 0
-8 -4 0
-8 -3 0
-8 -2 0
-8 -1 0
-8 1 0
-8 2 0
-8 3 0
-8 4 0
-8 5 0
-8 6 0
-8 7 0
-8 8 0
-8 9 0
-8 10 0
-7 -10 0
-7 -9 0
-7 -8 0
-7 -7 0
-7 -6 0
-7 -5 0
-7 -4 0
-7 -3 0
-7 -2 0
-7 -1 0
-7 1 0
-7 2 0
-7 3 0
-7 4 0
-7 5 0
-7 6 0
-7 7 0
-7 8 0
-7 9 0
-7 10 0
-6 -10 0
-6 -9 0
-6 -8 0
-6 -7 0
-6 -6 0
-6 -5 0
-6 -4 0
-6 -3 0
-6 -2 0
-6 -1 0
-6 1 0
-6 2 0
-6 3 0
-6 4 0
-6 5 0
-6 6 0
-6 7 0
-6 8 0
-6 9 0
-6 10 0
-5 -10 0
-5 -9 0
-5 -8 0
-5 -7 0
-5 -6 0
-5 -5 0
-5 -4 0
-5 -3 0
-5 -2 0
-5 -1 0
-5 1 0
-5 2 0
-5 3 0
-5 4 0
-5 5 0
-5 6 0
-5 7 0
-5 8 0
-5 9 0
-5 10 0
-4 -10 0
-4 -9 0
-4 -8 0
-4 -7 0
-4 -6 0
-4 -5 0
-4 -4 0
-4 -3 0
-4 -2 0
-4 -1 0
-4 1 0
-4 2 0
-4 3 0
-4 4 0
-4 5 0
-4 6 0
-4 7 0
-4 8 0
-4 9 0
-4 10 0
-3 -10 0
-3 -9 0
-3 -8 0
-3 -7 0
-3 -6 0
-3 -5 0
-3 -4 0
-3 -3 0
-3 -2 0
-3 -1 0
-3 1 0
-3 2 0
-3 3 0
-3 4 0
-3 5 0
-3 6 0
-3 7 0
-3 8 0
-3 9 0
-3 10 0
-2 -10 0
-2 -9 0
-2 -8 0
-2 -7 0
-2 -6 0
-2 -5 0
-2 -4 0
-2 -3 0
-2 -2 0
-2 -1 0
-2 1 0
-2 2 0
-2 3 0
-2 4 0
-2 5 0
-2 6 0
-2 7 0
-2 8 0
-2 9 0
-2 10 0
-1 -10 0
-1 -9 0
-1 -8 0
-1 -7 0
-1 -6 0
-1 -5 0
-1 -4 0
-1 -3 0
-1 -2 0
-1 -1 0
-1 1 0
-1 2 0
-1 3 0
-1 4 0
-1 5 0
-1 6 0
-1 7 0
-1 8 0
-1 9 0
-1 10 0
1 -10 0
1 -9 0
1 -8 0
1 -7 0
1 -6 0
1 -5 0
1 -4 0
1 -3 0
1 -2 0
1 -1 0
1 1 0
1 2 0
1 3 0
1 4 0
1 5 0
1 6 0
1 7 0
1 8 0
1 9 0
1 10 0
2 -10 0
2 -9 0
2 -8 0
2 -7 0
2 -6 0
2 -5 0
2 -4 0
2 -3 0
2 -2 0
2 -1 0
2 1 0
2 2 0
2 3 0
2 4 0
2 5 0
2 6 0
2 7 0
2 8 0
2 9 0
2 10 0
3 -10 0
3 -9 0
3 -8 0
3 -7 0
3 -6 0
3 -5 0
3 -4 0
3 -3 0
3 -2 0
3 -1 0
3 1 0
3 2 0
3 3 0
3 4 0
3 5 0
3 6 0
3 7 0
3 8 0
3 9 0
3 10 0
4 -10 0
4 -9 0
4 -8 0
4 -7 0
4 -6 0
4 -5 0
4 -4 0
4 -3 0
4 -2 0
4 -1 0
4 1 0
4 2 0
4 3 0
4 4 0
4 5 0
4 6 0
4 7 0
4 8 0
4 9 0
4 10 0
5 -10 0
5 -9 0
5 -8 0
5 -7 0
5 -6 0
5 -5 0
5 -4 0
5 -3 0
5 -2 0
5 -1 0
5 1 0
5 2 0
5 3 0
5 4 0
5 5 0
5 6 0
5 7 0
5 8 0
5 9 0
5 10 0
6 -10 0
6 -9 0
6 -8 0
6 -7 0
6 -6 0
6 -5 0
6 -4 0
6 -3 0
6 -2 0
6 -1 0
6 1 0
6 2 0
6 3 0
6 4 0
6 5 0
6 6 0
6 7 0
6 8 0
6 9 0
6 10 0
7 -10 0
7 -9 0
7 -8 0
7 -7 0
7 -6 0
7 -5 0
7 -4 0
7 -3 0
7 -2 0
7 -1 0
7 1 0
7 2 0
7 3 0
7 4 0
7 5 0
7 6 0
7 7 0
7 8 0
7 9 0
7 10 0
8 -10 0
8 -9 0
8 -8 0
8 -7 0
8 -6 0
8 -5 0
8 -4 0
8 -3 0
8 -2 0
8 -1 0
8 1 0
8 2 0
8 3 0
8 4 0
8 5 0
8 6 0
8 7 0
8 8 0
8 9 0
8 10 0
9 -10 0
9 -9 0
9 -8 0
9 -7 0
9 -6 0
9 -5 0
9 -4 0
9 -3 0
9 -2 0
9 -1 0
9 1 0
9 2 0
9 3 0
9 4 0
9 5 0
9 6 0
9 7 0
9 8 0
9 9 0
9 10 0
10 -10 0
10 -9 0
10 -8 0
10 -7 0
10 -6 0
10 -5 0
10 -4 0
10 -3 0
10 -2 0
10 -1 0
10 1 0
10 2 0
10 3 0
10 4 0
10 5 0
10 6 0
10 7 0
10 8 0
10 9 0
10 10 0
POLYGONS 361 1805
4 0 1 21 20
4 1 2 22 21
4 2 3 23 22
4 3 4 24 23
4 4 5 25 24
4 5 6 26 25
4 6 7 27 26
4 7 8 28 27
4 8 9 29 28
4 9 10 30 29
4 10 11 31 30
4 11 12 32 31
4 12 13 33 32
4 13 14 34 33
4 14 15 35 34
4 15 16 36 35
4 16 17 37 36
4 17 18 38 37
4 18 19 39 38
4 20 21 41 40
4 21 22 42 41
4 22 23 43 42
4 23 24 44 43
4 24 25 45 44
4 25 26 46 45
4 26 27 47 46
4 27 28 48 47
4 28 29 49 48
4 29 30 50 49
4 30 31 51 50
4 31 32 52 51
4 32 33 53 52
4 33 34 54 53
4 34 35 55 54
4 35 36 56 55
4 36 37 57 56
4 37 38 58 57
4 38 39 59 58
4 40 41 61 60
4 41 42 62 61
4 42 43 63 62
4 43 44 64 63
4 44 45 65 64
4 45 46 66 65
4 46 47 67 66
4 47 48 68 67
4 48 49 69 68
4 49 50 70 69
4 50 51 71 70
4 51 52 72 71
4 52 53 73 72
4 53 54 74 73
4 54 55 75 74
4 55 56 76 75
4 56 57 77 76
4 57 58 78 77
4 58 59 79 78
4 60 61 81 80
4 61 62 82 81
4 62 63 83 82
4 63 64 84 83
4 64 65 85 84
4 65 66 86 85
4 66 67 87 86
4 67 68 88 87
4 68 69 89 88
4 69 70 90 89
4 70 71 91 90
4 71 72 92 91
4 72 73 93 92
4 73 74 94 93
4 74 75 95 94
4 75 76 96 95
4 76 77 97 96
4 77 78 98 97
4 78 79 99 98
4 80 81 101 100
4 81 82 102 101
4 82 83 103 102
4 83 84 104 103
4 84 85 105 104
4 85 86 106 105
4 86 87 107 106
4 87 88 108 107
4 88 89 109 108
4 89 90 110 109
4 90 91 111 110
4 91 92 112 111
4 92 93 113 112
4 93 94 114 113
4 94 95 115 114
4 95 96 116 115
4 96 97 117 116
4 97 98 118 117
4 98 99 119 118
4 100 101 121 120
4 101 102 122 121
4 102 103 123 122
4 103 104 124 123
4 104 105 125 124
4 105 106 126 125
4 106 107 127 126
4 107 108 128 127
4 108 109 129 128
4 109 110 130 129
4 110 111 131 130
4 111 112 132 131
4 112 113 133 132
4 113 114 134 133
4 114 115 135 134
4 115 116 136 135
4 116 117 137 136
4 117 118 138 137
4 118 119 139 138
4 120 121 141 140
4 121 122 142 141
4 122 123 143 142
4 123 124 144 143
4 124 125 145 144
4 125 126 146 145
4 126 127 147 146
4 127 128 148 147
4 128 129 149 148
4 129 130 150 149
4 130 131 151 150
4 131 132 152 151
4 132 133 153 152
4 133 134 154 153
4 134 135 155 154
4 135 136 156 155
4 136 137 157 156
4 137 138 158 157
4 138 139 159 158
4 140 141 161 160
4 141 142 162 161
4 142 143 163 162
4 143 144 164 163
4 144 145 165 164
4 145 146 166 165
4 146 147 167 166
4 147 148 168 167
4 148 149 169 168
4 149 150 170 169
4 150 151 171 170
4 151 152 172 171
4 152 153 173 172
4 153 154 174 173
4 154 155 175 174
4 155 156 176 175
4 156 157 177 176
4 157 158 178 177
4 158 159 179 178
4 160 161 181 180
4 161 162 182 181
4 162 163 183 182
4 163 164 184 183
4 164 165 185 184
4 165 166 186 185
4 166 167 187 186
4 167 168 188 187
4 168 169 189 188
4 169 170 190 189
4 170 171 191 190
4 171 172 192 191
4 172 173 193 192
4 173 174 194 193
4 174 175 195 194
4 175 176 196 195
4 176 177 197 196
4 177 178 198 197
4 178 179 199 198
4 180 181 201 200
4 181 182 202 201
4 182 183 203 202
4 183 184 204 203
4 184 185 205 204
4 185 186 206 205
4 186 187 207 206
4 187 188 208 207
4 188 189 209 208
4 189 190 210 209
4 190 191 211 210
4 191 192 212 211
4 192 193 213 212
4 193 194 214 213
4 194 195 215 214
4 195 196 216 215
4 196 197 217 216
4 197 198 218 217
4 198 199 219 218
4 200 201 221 220
4 201 202 222 221
4 202 203 223 222
4 203 204 224 223
4 204 205 225 224
4 205 206 226 225
4 206 207 227 226
4 207 208 228 227
4 208 209 229 228
4 209 210 230 229
4 210 211 231 230
4 211 212 232 231
4 212 213 233 232
4 213 214 234 233
4 214 215 235 234
4 215 216 236 235
4 216 217 237 236
4 217 218 238 237
4 218 219 239 238
4 220 221 241 240
4 221 222 242 241
4 222 223 243 242
4 223 224 244 243
4 224 225 245 244
4 225 226 246 245
4 226 227 247 246
4 227 228 248 247
4 228 229 249 248
4 229 230 250 249
4 230 231 251 250
4 231 232 252 251
4 232 233 253 252
4 233 234 254 253
4 234 235 255 254
4 235 236 256 255
4 236 237 257 256
4 237 238 258 257
4 238 239 259 258
4 240 241 261 260
4 241 242 262 261
4 242 243 263 262
4 243 244 264 263
4 244 245 265 264
4 245 246 266 265
4 246 247 267 266
4 247 248 268 267
4 248 249 269 268
4 249 250 270 269
4 250 251 271 270
4 251 252 272 271
4 252 253 273 272
4 253 254 274 273
4 254 255 275 274
4 255 256 276 275
4 256 257 277 276
4 257 258 278 277
4 258 259 279 278
4 260 261 281 280
4 261 262 282 281
4 262 263 283 282
4 263 264 284 283
4 264 265 285 284
4 265 266 286 285
4 266 267 287 286
4 267 268 288 287
4 268 269 289 288
4 269 270 290 289
4 270 271 291 290
4 271 272 292 291
4 272 273 293 292
4 273 274 294 293
4 274 275 295 294
4 275 276 296 295
4 276 277 297 296
4 277 278 298 297
4 278 279 299 298
4 280 281 301 300
4 281 282 302 301
4 282 283 303 302
4 283 284 304 303
4 284 285 305 304
4 285 286 306 305
4 286 287 307 306
4 287 288 308 307
4 288 289 309 308
4 289 290 310 309
4 290 291 311 310
4 291 292 312 311
4 292 293 313 312
4 293 294 314 313
4 294 295 315 314
4 295 296 316 315
4 296 297 317 316
4 297 298 318 317
4 298 299 319 318
4 300 301 321 320
4 301 302 322 321
4 302 303 323 322
4 303 304 324 323
4 304 305 325 324
4 305 306 326 325
4 306 307 327 326
4 307 308 328 327
4 308 309 329 328
4 309 310 330 329
4 310 311 331 330
4 311 312 332 331
4 312 313 333 332
4 313 314 334 333
4 314 315 335 334
4 315 316 336 335
4 316 317 337 336
4 317 318 338 337
4 318 319 339 338
4 320 321 341 340
4 321 322 342 341
4 322 323 343 342
4 323 324 344 343
4 324 325 345 344
4 325 326 346 345
4 326 327 347 346
4 327 328 348 347
4 328 329 349 348
4 329 330 350 349
4 330 331 351 350
4 331 332 352 351
4 332 333 353 352
4 333 334 354 353
4 334 335 355 354
4 335 336 356 355
4 336 337 357 356
4 337 338 358 357
4 338 339 359 358
4 340 341 361 360
4 341 342 362 361
4 342 343 363 362
4 343 344 364 363
4 344 345 365 364
4 345 346 366 365
4 346 347 367 366
4 347 348 368 367
4 348 349 369 368
4 349 350 370 369
4 350 351 371 370
4 351 352 372 371
4 352 353 373 372
4 353 354 374 373
4 354 355 375 374
4 355 356 376 375
4 356 357 377 376
4 357 358 378 377
4 358 359 379 378
4 360 361 381 380
4 361 362 382 381
4 362 363 383 382
4 363 364 384 383
4 364 365 385 384
4 365 366 386 385
4 366 367 387 386
4 367 368 388 387
4 368 369 389 388
4 369 370 390 389
4 370 371 391 390
4 371 372 392 391
4 372 373 393 392
4 373 374 394 393
4 374 375 395 394
4 375 376 396 395
4 376 377 397 396
4 377 378 398 397
4 378 379 399 398
POINT_DATA 400
SCALARS Magnitude vec2 float 1
LOOKUP_TABLE default
4.96725 -4.12605
4.90898 -4.10369
4.90459 -4.14227
4.95779 -4.21854
5.03577 -4.28826
5.09686 -4.31649
5.11698 -4.29581
5.0978 -4.24362
5.05889 -4.1863
5.024 -4.14486
5.024 -4.14486
5.05889 -4.1863
5.0978 -4.24362
5.11698 -4.29581
5.09686 -4.31649
5.03577 -4.28826
4.95779 -4.21854
4.90459 -4.14227
4.90898 -4.10369
4.96725 -4.12605
4.91556 -4.4674
4.96897 -4.48653
5.06155 -4.56859
5.13053 -4.65979
5.13317 -4.70238
5.06962 -4.67304
4.97511 -4.59156
4.89259 -4.49915
4.84539 -4.42866
4.82921 -4.39034
4.82921 -4.39034
4.84539 -4.42866
4.89259 -4.49915
4.97511 -4.59156
5.06962 -4.67304
5.13317 -4.70238
5.13053 -4.65979
5.06155 -4.56859
4.96897 -4.48653
4.91556 -4.4674
5.01317 -0.633189
5.10002 -0.697297
5.11295 -0.806899
5.03419 -0.880173
4.91039 -0.861015
4.82056 -0.757713
4.82011 -0.630317
4.90332 -0.541778
5.01813 -0.51471
5.10902 -0.525784
5.10902 -0.525784
5.01813 -0.51471
4.90332 -0.541778
4.82011 -0.630317
4.82056 -0.757713
4.91039 -0.861015
5.03419 -0.880173
5.11295 -0.806899
5.10002 -0.697297
5.01317 -0.633189
5.11278 3.8646
5.07223 3.75964
4.94742 3.64424
4.83469 3.61929
4.83342 3.72018
4.96058 3.88791
5.13755 4.01426
5.26516 4.02383
5.30084 3.92743
5.27682 3.80758
5.27682 3.80758
5.30084 3.92743
5.26516 4.02383
5.13755 4.01426
4.96058 3.88791
4.83342 3.72018
4.83469 3.61929
4.94742 3.64424
5.07223 3.75964
5.11278 3.8646
5.06084 4.89317
4.91905 4.75333
4.84984 4.64981
4.93809 4.69007
5.13413 4.8711
5.29125 5.06909
5.27877 5.12413
5.0627 4.95866
4.72798 4.63985
4.43601 4.33735
4.43601 4.33735
4.72798 4.63985
5.0627 4.95866
5.27877 5.12413
5.29125 5.06909
5.13413 4.8711
4.93809 4.69007
4.84984 4.64981
4.91905 4.75333
5.06084 4.89317
4.87258 1.49787
4.83403 1.32721
4.96708 1.24354
5.16237 1.34905
5.23903 1.59167
5.0761 1.77586
4.69722 1.67978
4.32854 1.19353
4.4001 0.359948
5.36962 -0.844019
5.36962 -0.844019
4.4001 0.359948
4.32854 1.19353
4.69722 1.67978
5.0761 1.77586
5.23903 1.59167
5.16237 1.34905
4.96708 1.24354
4.83403 1.32721
4.87258 1.49787
4.80639 -3.21921
4.98045 -3.41756
5.17521 -3.48199
5.20491 -3.32288
4.98357 -3.03931
4.60926 -2.89543
4.4618 -3.233
4.58968 0.673435
1.53201 0.75384
1.15008 0.615158
1.15008 0.615158
1.53201 0.75384
4.58968 0.673435
4.4618 -3.233
4.60926 -2.89543
4.98357 -3.03931
5.20491 -3.32288
5.17521 -3.48199
4.98045 -3.41756
4.80639 -3.21921
5.04226 -4.94868
5.24038 -5.16784
5.25361 -5.21693
5.03767 -5.01962
4.72953 -4.70214
4.66784 -4.56743
4.22079 4.12598
1.21608 1.0919
1.13263 0.883535
1.23373 0.824784
1.23373 0.824784
1.13263 0.883535
1.21608 1.0919
4.22079 4.12598
4.66784 -4.56743
4.72953 -4.70214
5.03767 -5.01962
5.25361 -5.21693
5.24038 -5.16784
5.04226 -4.94868
5.27731 -2.13145
5.25074 -2.35637
5.01704 -2.39273
4.71665 -2.17393
4.6019 -1.81605
4.92682 -1.55194
1.7278 -0.075397
1.05536 -0.369102
0.666637 -0.214113
0.680153 -0.0951408
0.680153 -0.0951408
0.666637 -0.214113
1.05536 -0.369102
1.7278 -0.075397
4.92682 -1.55194
4.6019 -1.81605
4.71665 -2.17393
5.01704 -2.39273
5.25074 -2.35637
5.27731 -2.13145
5.18084 2.61369
4.94533 2.40665
4.68523 2.38257
4.59525 2.59942
4.79475 2.99259
5.51781 3.74224
1.4419 -1.23117
0.901689 -0.854651
1.00526 -0.596935
0.905562 -0.523589
0.905562 -0.523589
1.00526 -0.596935
0.901689 -0.854651
1.4419 -1.23117
5.51781 3.74224
4.79475 2.99259
4.59525 2.59942
4.68523 2.38257
4.94533 2.40665
5.18084 2.61369
4.84177 2.62009
4.88346 2.53247
5.00993 2.54081
5.17018 2.64063
5.39231 2.8622
6.33492 4.16493
1.56886 1.44157
0.945361 0.92181
0.32432 0.287423
0.811009 0.282343
0.811009 0.282343
0.32432 0.287423
0.945361 0.92181
1.56886 1.44157
6.33492 4.16493
5.39231 2.8622
5.17018 2.64063
5.00993 2.54081
4.88346 2.53247
4.84177 2.62009
4.99097 -2.14151
5.04524 -2.13714
5.04348 -2.09228
5.01767 -2.08099
5.07913 -2.12658
5.37373 -1.96494
1.86406 1.85675
0.781934 0.0920983
0.992846 -0.603905
0.97517 0.218282
0.97517 0.218282
0.992846 -0.603905
0.781934 0.0920983
1.86406 1.85675
5.37373 -1.96494
5.07913 -2.12658
5.01767 -2.08099
5.04348 -2.09228
5.04524 -2.13714
4.99097 -2.14151
5.06971 -5.01163
4.97927 -4.91306
4.85733 -4.80296
4.85554 -4.82565
5.09228 -5.07558
5.57924 -5.54647
3.30296 2.91786
1.82475 -1.52855
1.81295 -1.81161
0.808469 0.114222
0.808469 0.114222
1.81295 -1.81161
1.82475 -1.52855
3.30296 2.91786
5.57924 -5.54647
5.09228 -5.07558
4.85554 -4.82565
4.85733 -4.80296
4.97927 -4.91306
5.06971 -5.01163
4.96928 -3.36974
4.8046 -3.20038
4.77115 -3.00571
4.98295 -2.9729
5.37636 -3.23148
5.79575 -3.7791
6.25939 -4.63689
4.99274 -2.27593
2.43856 -2.40146
1.90046 -0.0373331
1.90046 -0.0373331
2.43856 -2.40146
4.99274 -2.27593
6.25939 -4.63689
5.79575 -3.7791
5.37636 -3.23148
4.98295 -2.9729
4.77115 -3.00571
4.8046 -3.20038
4.96928 -3.36974
4.80909 1.24434
4.73818 1.43386
4.89624 1.69554
5.21923 1.83472
5.51959 1.71429
5.65535 1.36857
5.65396 0.986464
5.76909 0.784743
6.44473 0.897197
8.11814 1.15153
8.11814 1.15153
6.44473 0.897197
5.76909 0.784743
5.65396 0.986464
5.65535 1.36857
5.51959 1.71429
5.21923 1.83472
4.89624 1.69554
4.73818 1.43386
4.80909 1.24434
4.73744 4.55531
4.83077 4.7022
5.08999 4.9726
5.34764 5.19155
5.4539 5.22043
5.39022 5.08374
5.30421 4.97864
5.44795 5.14844
5.97424 5.6885
6.68172 6.37523
6.68172 6.37523
5.97424 5.6885
5.44795 5.14844
5.30421 4.97864
5.39022 5.08374
5.4539 5.22043
5.34764 5.19155
5.08999 4.9726
4.83077 4.7022
4.73744 4.55531
4.79028 3.49888
4.98626 3.55636
5.21664 3.76658
5.33576 3.99048
5.29703 4.08924
5.18923 4.04624
5.19015 3.99389
5.43381 4.11031
5.88078 4.45209
6.32347 4.85687
6.32347 4.85687
5.88078 4.45209
5.43381 4.11031
5.19015 3.99389
5.18923 4.04624
5.29703 4.08924
5.33576 3.99048
5.21664 3.76658
4.98626 3.55636
4.79028 3.49888
4.90794 -0.948064
5.10911 -0.987324
5.2446 -0.876326
5.24506 -0.709686
5.15258 -0.618552
5.09527 -0.663145
5.19561 -0.785484
5.46919 -0.864429
5.81705 -0.828378
6.1008 -0.724111
6.1008 -0.724111
5.81705 -0.828378
5.46919 -0.864429
5.19561 -0.785484
5.09527 -0.663145
5.15258 -0.618552
5.24506 -0.709686
5.2446 -0.876326
5.10911 -0.987324
4.90794 -0.948064
5.02033 -4.66315
5.16438 -4.76645
5.20296 -4.74611
5.13988 -4.64928
5.06217 -4.58531
5.0792 -4.64063
5.23863 -4.81725
5.49439 -5.04156
5.75441 -5.22769
5.93992 -5.33442
5.93992 -5.33442
5.75441 -5.22769
5.49439 -5.04156
5.23863 -4.81725
5.0792 -4.64063
5.06217 -4.58531
5.13988 -4.64928
5.20296 -4.74611
5.16438 -4.76645
5.02033 -4.66315
5.09107 -4.17755
5.1606 -4.29541
5.13234 -4.32662
5.05678 -4.27343
5.02498 -4.20947
5.10246 -4.22292
5.28243 -4.35442
5.50191 -4.57453
5.69348 -4.80883
5.81718 -4.98155
5.81718 -4.98155
5.69348 -4.80883
5.50191 -4.57453
5.28243 -4.35442
5.10246 -4.22292
5.02498 -4.20947
5.05678 -4.27343
5.13234 -4.32662
5.1606 -4.29541
5.09107 -4.17755
